<?xml version="1.0" encoding="UTF-8"?>

<!-- generated on 6/9/2016 12:48:17 PM by SUMO gui Version 0.25.0
<?xml version="1.0" encoding="UTF-8"?>

<configuration xmlns:xsi="http://www.w3.org/2001/XMLSchema-instance" xsi:noNamespaceSchemaLocation="http://sumo.dlr.de/xsd/sumo-gui.exeConfiguration.xsd">

    <input>
        <net-file value="huntcol_network/huntcol.net.xml"/>
        <route-files value="huntcol_network/huntcol_10cars.rou.xml"/>
        <additional-files value="huntcol_network/huntcol.det.xml,huntcol_network/vtypeprobe.xml"/>
    </input>

    <output>
        <netstate-dump value="test.xml"/>
        <fcd-output value="fcd.xml"/>
        <tripinfo-output value="tripinfo.xml"/>
        <save-state.prefix value="huntcol_network/state"/>
    </output>

    <time>
        <begin value="0"/>
        <end value="203"/>
        <step-length value="0.1"/>
    </time>

    <processing>
        <time-to-teleport value="-1"/>
    </processing>

    <emissions>
        <phemlight-path value="huntcol_network/./PHEMlight/"/>
    </emissions>

    <traci_server>
        <remote-port value="8873"/>
    </traci_server>

</configuration>
-->

<vehicle-type-probes>
    <timestep time="0.00" id="veh5" vType="">
        <vehicle id="veh1" lane="G5_0" pos="5.10" x="6.93" y="900.42" speed="0.00"/>
    </timestep>
    <timestep time="1.00" id="veh5" vType="">
        <vehicle id="veh1" lane="G5_0" pos="6.53" x="8.15" y="901.16" speed="2.60"/>
    </timestep>
    <timestep time="2.00" id="veh5" vType="">
        <vehicle id="veh1" lane="G5_0" pos="10.56" x="11.60" y="903.25" speed="5.20"/>
    </timestep>
    <timestep time="3.00" id="veh5" vType="">
        <vehicle id="veh1" lane="G5_0" pos="17.19" x="17.26" y="906.69" speed="7.80"/>
        <vehicle id="veh2" lane="G5_0" pos="6.27" x="7.93" y="901.02" speed="2.34"/>
    </timestep>
    <timestep time="4.00" id="veh5" vType="">
        <vehicle id="veh1" lane="G5_0" pos="26.42" x="25.15" y="911.48" speed="10.40"/>
        <vehicle id="veh2" lane="G5_0" pos="10.04" x="11.15" y="902.98" speed="4.94"/>
    </timestep>
    <timestep time="5.00" id="veh5" vType="">
        <vehicle id="veh1" lane="G5_0" pos="38.25" x="35.27" y="917.62" speed="13.00"/>
        <vehicle id="veh2" lane="G5_0" pos="16.41" x="16.60" y="906.29" speed="7.54"/>
        <vehicle id="veh3" lane="G5_0" pos="6.04" x="7.73" y="900.90" speed="2.08"/>
    </timestep>
    <timestep time="6.00" id="veh5" vType="">
        <vehicle id="veh1" lane="G5_0" pos="52.68" x="47.60" y="925.11" speed="15.60"/>
        <vehicle id="veh2" lane="G5_0" pos="25.38" x="24.27" y="910.94" speed="10.14"/>
        <vehicle id="veh3" lane="G5_0" pos="9.55" x="10.73" y="902.72" speed="4.68"/>
    </timestep>
    <timestep time="7.00" id="veh5" vType="">
        <vehicle id="veh1" lane="G5_0" pos="69.71" x="62.16" y="933.95" speed="18.20"/>
        <vehicle id="veh2" lane="G5_0" pos="36.95" x="34.16" y="916.95" speed="12.74"/>
        <vehicle id="veh3" lane="G5_0" pos="15.66" x="15.95" y="905.90" speed="7.28"/>
        <vehicle id="veh4" lane="G5_0" pos="5.83" x="7.55" y="900.79" speed="1.82"/>
    </timestep>
    <timestep time="8.00" id="veh5" vType="">
        <vehicle id="veh1" lane="G5_0" pos="89.21" x="78.82" y="944.07" speed="19.81"/>
        <vehicle id="veh2" lane="G5_0" pos="51.12" x="46.27" y="924.30" speed="15.34"/>
        <vehicle id="veh3" lane="G5_0" pos="24.37" x="23.40" y="910.42" speed="9.88"/>
        <vehicle id="veh4" lane="G5_0" pos="9.08" x="10.33" y="902.48" speed="4.42"/>
    </timestep>
    <timestep time="9.00" id="veh5" vType="">
        <vehicle id="veh1" lane="G5_0" pos="106.98" x="94.02" y="953.29" speed="16.14"/>
        <vehicle id="veh2" lane="G5_0" pos="67.89" x="60.60" y="933.00" speed="17.94"/>
        <vehicle id="veh3" lane="G5_0" pos="35.68" x="33.07" y="916.29" speed="12.48"/>
        <vehicle id="veh4" lane="G5_0" pos="14.93" x="15.33" y="905.52" speed="7.02"/>
        <vehicle id="veh5" lane="G5_0" pos="5.65" x="7.40" y="900.70" speed="1.56"/>
    </timestep>
    <timestep time="10.00" id="veh5" vType="">
        <vehicle id="veh1" lane="G5_0" pos="121.18" x="106.15" y="960.66" speed="12.63"/>
        <vehicle id="veh2" lane="G5_0" pos="85.95" x="76.04" y="942.38" speed="16.99"/>
        <vehicle id="veh3" lane="G5_0" pos="49.59" x="44.96" y="923.50" speed="15.08"/>
        <vehicle id="veh4" lane="G5_0" pos="23.38" x="22.55" y="909.90" speed="9.62"/>
        <vehicle id="veh5" lane="G5_0" pos="8.64" x="9.95" y="902.25" speed="4.16"/>
    </timestep>
    <timestep time="11.00" id="veh5" vType="">
        <vehicle id="veh1" lane="G5_0" pos="131.98" x="115.39" y="966.26" speed="9.35"/>
        <vehicle id="veh2" lane="G5_0" pos="101.34" x="89.20" y="950.36" speed="14.11"/>
        <vehicle id="veh3" lane="G5_0" pos="66.10" x="59.07" y="932.07" speed="17.68"/>
        <vehicle id="veh4" lane="G5_0" pos="34.43" x="32.00" y="915.64" speed="12.22"/>
        <vehicle id="veh5" lane="G5_0" pos="14.23" x="14.73" y="905.15" speed="6.76"/>
        <vehicle id="veh6" lane="G5_0" pos="5.49" x="7.26" y="900.62" speed="1.30"/>
    </timestep>
    <timestep time="12.00" id="veh5" vType="">
        <vehicle id="veh1" lane="G5_0" pos="139.67" x="121.96" y="970.26" speed="6.39"/>
        <vehicle id="veh2" lane="G5_0" pos="113.95" x="99.98" y="956.91" speed="11.42"/>
        <vehicle id="veh3" lane="G5_0" pos="82.57" x="73.15" y="940.62" speed="15.37"/>
        <vehicle id="veh4" lane="G5_0" pos="48.08" x="43.67" y="922.72" speed="14.82"/>
        <vehicle id="veh5" lane="G5_0" pos="22.42" x="21.73" y="909.40" speed="9.36"/>
        <vehicle id="veh6" lane="G5_0" pos="8.22" x="9.60" y="902.04" speed="3.90"/>
    </timestep>
    <timestep time="13.00" id="veh5" vType="">
        <vehicle id="veh1" lane="G5_0" pos="144.64" x="126.21" y="972.84" speed="3.89"/>
        <vehicle id="veh2" lane="G5_0" pos="123.98" x="108.55" y="962.11" speed="8.93"/>
        <vehicle id="veh3" lane="G5_0" pos="96.63" x="85.17" y="947.92" speed="13.00"/>
        <vehicle id="veh4" lane="G5_0" pos="64.20" x="57.45" y="931.09" speed="16.53"/>
        <vehicle id="veh5" lane="G5_0" pos="33.21" x="30.96" y="915.00" speed="11.96"/>
        <vehicle id="veh6" lane="G5_0" pos="13.55" x="14.15" y="904.80" speed="6.50"/>
        <vehicle id="veh7" lane="G5_0" pos="5.36" x="7.15" y="900.55" speed="1.04"/>
    </timestep>
    <timestep time="14.00" id="veh5" vType="">
        <vehicle id="veh1" lane="G5_0" pos="147.45" x="128.61" y="974.29" speed="2.03"/>
        <vehicle id="veh2" lane="G5_0" pos="131.63" x="115.09" y="966.09" speed="6.64"/>
        <vehicle id="veh3" lane="G5_0" pos="108.38" x="95.22" y="954.02" speed="10.75"/>
        <vehicle id="veh4" lane="G5_0" pos="79.53" x="70.55" y="939.04" speed="14.36"/>
        <vehicle id="veh5" lane="G5_0" pos="46.60" x="42.40" y="921.95" speed="14.56"/>
        <vehicle id="veh6" lane="G5_0" pos="21.48" x="20.93" y="908.92" speed="9.10"/>
        <vehicle id="veh7" lane="G5_0" pos="7.83" x="9.26" y="901.83" speed="3.64"/>
    </timestep>
    <timestep time="15.00" id="veh5" vType="">
        <vehicle id="veh1" lane="G5_0" pos="148.79" x="129.76" y="974.99" speed="0.89"/>
        <vehicle id="veh2" lane="G5_1" pos="138.76" x="119.46" y="972.60" speed="6.78"/>
        <vehicle id="veh3" lane="G5_0" pos="119.75" x="104.94" y="959.92" speed="11.22"/>
        <vehicle id="veh4" lane="G5_0" pos="93.69" x="82.66" y="946.39" speed="13.99"/>
        <vehicle id="veh5" lane="G5_0" pos="62.56" x="56.05" y="930.24" speed="16.89"/>
        <vehicle id="veh6" lane="G5_0" pos="32.01" x="29.93" y="914.38" speed="11.70"/>
        <vehicle id="veh7" lane="G5_0" pos="12.90" x="13.60" y="904.46" speed="6.24"/>
        <vehicle id="veh8" lane="G5_0" pos="5.26" x="7.06" y="900.50" speed="0.78"/>
    </timestep>
    <timestep time="16.00" id="veh5" vType="">
        <vehicle id="veh1" lane="G5_0" pos="149.34" x="130.23" y="975.27" speed="0.33"/>
        <vehicle id="veh2" lane="G5_1" pos="144.08" x="124.02" y="975.37" speed="4.21"/>
        <vehicle id="veh3" lane="G5_0" pos="129.31" x="113.10" y="964.88" speed="8.22"/>
        <vehicle id="veh4" lane="G5_0" pos="106.28" x="93.42" y="952.93" speed="11.46"/>
        <vehicle id="veh5" lane="G5_0" pos="78.18" x="69.40" y="938.35" speed="14.60"/>
        <vehicle id="veh6" lane="G5_0" pos="45.14" x="41.16" y="921.20" speed="14.30"/>
        <vehicle id="veh7" lane="G5_0" pos="20.57" x="20.15" y="908.45" speed="8.84"/>
        <vehicle id="veh8" lane="G5_0" pos="7.47" x="8.95" y="901.64" speed="3.38"/>
    </timestep>
    <timestep time="17.00" id="veh5" vType="">
        <vehicle id="veh1" lane="G5_0" pos="149.53" x="130.39" y="975.38" speed="0.12"/>
        <vehicle id="veh2" lane="G5_1" pos="147.16" x="126.65" y="976.96" speed="2.25"/>
        <vehicle id="veh3" lane="G5_0" pos="136.00" x="118.82" y="968.35" speed="5.49"/>
        <vehicle id="veh4" lane="G5_0" pos="116.42" x="102.09" y="958.19" speed="9.09"/>
        <vehicle id="veh5" lane="G5_0" pos="91.56" x="80.84" y="945.29" speed="12.40"/>
        <vehicle id="veh6" lane="G5_0" pos="60.68" x="54.44" y="929.26" speed="15.81"/>
        <vehicle id="veh7" lane="G5_0" pos="30.84" x="28.93" y="913.78" speed="11.44"/>
        <vehicle id="veh8" lane="G5_0" pos="12.28" x="13.06" y="904.14" speed="5.98"/>
        <vehicle id="veh9" lane="G5_0" pos="5.18" x="7.00" y="900.46" speed="0.52"/>
    </timestep>
    <timestep time="18.00" id="veh5" vType="">
        <vehicle id="veh1" lane="G5_0" pos="149.60" x="130.45" y="975.41" speed="0.04"/>
        <vehicle id="veh2" lane="G5_1" pos="148.67" x="127.93" y="977.75" speed="1.01"/>
        <vehicle id="veh3" lane="G5_0" pos="140.20" x="122.41" y="970.53" speed="3.23"/>
        <vehicle id="veh4" lane="G5_0" pos="124.30" x="108.82" y="962.28" speed="6.92"/>
        <vehicle id="veh5" lane="G5_0" pos="102.81" x="90.45" y="951.13" speed="10.31"/>
        <vehicle id="veh6" lane="G5_0" pos="75.35" x="66.98" y="936.88" speed="13.75"/>
        <vehicle id="veh7" lane="G5_0" pos="43.71" x="39.93" y="920.45" speed="14.04"/>
        <vehicle id="veh8" lane="G5_0" pos="19.69" x="19.40" y="907.99" speed="8.58"/>
        <vehicle id="veh9" lane="G5_0" pos="7.13" x="8.66" y="901.47" speed="3.12"/>
    </timestep>
    <timestep time="19.00" id="veh5" vType="">
        <vehicle id="veh1" lane="G5_0" pos="149.63" x="130.47" y="975.42" speed="0.01"/>
        <vehicle id="veh10" lane="G5_0" pos="5.13" x="6.95" y="900.43" speed="0.26"/>
        <vehicle id="veh2" lane="G5_1" pos="149.29" x="128.47" y="978.07" speed="0.39"/>
        <vehicle id="veh3" lane="G5_0" pos="142.47" x="124.36" y="971.71" speed="1.60"/>
        <vehicle id="veh4" lane="G5_1" pos="131.55" x="113.30" y="968.86" speed="7.33"/>
        <vehicle id="veh5" lane="G5_0" pos="113.57" x="99.65" y="956.71" speed="11.21"/>
        <vehicle id="veh6" lane="G5_0" pos="88.78" x="78.46" y="943.85" speed="13.65"/>
        <vehicle id="veh7" lane="G5_0" pos="59.12" x="53.10" y="928.45" speed="16.20"/>
        <vehicle id="veh8" lane="G5_0" pos="29.70" x="27.95" y="913.18" speed="11.18"/>
        <vehicle id="veh9" lane="G5_0" pos="11.68" x="12.55" y="903.83" speed="5.72"/>
    </timestep>
    <timestep time="20.00" id="veh5" vType="">
        <vehicle id="veh1" lane="G5_0" pos="149.63" x="130.48" y="975.43" speed="0.00"/>
        <vehicle id="veh10" lane="G5_0" pos="6.82" x="8.40" y="901.31" speed="2.86"/>
        <vehicle id="veh2" lane="G5_1" pos="149.52" x="128.66" y="978.19" speed="0.13"/>
        <vehicle id="veh3" lane="G5_0" pos="143.51" x="125.24" y="972.25" speed="0.67"/>
        <vehicle id="veh4" lane="G5_1" pos="137.43" x="118.33" y="971.92" speed="4.76"/>
        <vehicle id="veh5" lane="G5_0" pos="123.18" x="107.87" y="961.70" speed="8.33"/>
        <vehicle id="veh6" lane="G5_0" pos="101.09" x="88.99" y="950.24" speed="11.23"/>
        <vehicle id="veh7" lane="G5_0" pos="74.24" x="66.04" y="936.30" speed="14.15"/>
        <vehicle id="veh8" lane="G5_0" pos="42.31" x="38.73" y="919.73" speed="13.78"/>
        <vehicle id="veh9" lane="G5_0" pos="18.83" x="18.66" y="907.54" speed="8.32"/>
    </timestep>
    <timestep time="21.00" id="veh5" vType="">
        <vehicle id="veh1" lane="G5_0" pos="149.64" x="130.48" y="975.43" speed="0.00"/>
        <vehicle id="veh10" lane="G5_0" pos="11.11" x="12.06" y="903.53" speed="5.46"/>
        <vehicle id="veh11" lane="G5_0" pos="5.10" x="6.93" y="900.42" speed="0.00"/>
        <vehicle id="veh2" lane="G5_1" pos="149.60" x="128.73" y="978.23" speed="0.05"/>
        <vehicle id="veh3" lane="G5_0" pos="143.92" x="125.59" y="972.46" speed="0.25"/>
        <vehicle id="veh4" lane="G5_1" pos="141.00" x="121.38" y="973.77" speed="2.69"/>
        <vehicle id="veh5" lane="G5_0" pos="130.02" x="113.71" y="965.25" speed="5.66"/>
        <vehicle id="veh6" lane="G5_0" pos="111.05" x="97.50" y="955.40" speed="8.94"/>
        <vehicle id="veh7" lane="G5_0" pos="87.22" x="77.13" y="943.04" speed="12.03"/>
        <vehicle id="veh8" lane="G5_0" pos="57.34" x="51.59" y="927.53" speed="15.34"/>
        <vehicle id="veh9" lane="G5_0" pos="28.58" x="27.00" y="912.60" speed="10.92"/>
    </timestep>
    <timestep time="22.00" id="veh5" vType="">
        <vehicle id="veh1" lane="G5_0" pos="149.64" x="130.48" y="975.43" speed="0.00"/>
        <vehicle id="veh10" lane="G5_0" pos="18.00" x="17.95" y="907.11" speed="8.06"/>
        <vehicle id="veh11" lane="G5_0" pos="6.53" x="8.15" y="901.16" speed="2.60"/>
        <vehicle id="veh2" lane="G5_1" pos="149.62" x="128.75" y="978.24" speed="0.02"/>
        <vehicle id="veh3" lane="G5_0" pos="144.06" x="125.72" y="972.54" speed="0.09"/>
        <vehicle id="veh4" lane="G5_1" pos="142.85" x="122.97" y="974.73" speed="1.27"/>
        <vehicle id="veh5" lane="G5_0" pos="134.39" x="117.45" y="967.52" speed="3.39"/>
        <vehicle id="veh6" lane="G5_0" pos="118.82" x="104.14" y="959.43" speed="6.83"/>
        <vehicle id="veh7" lane="G5_0" pos="98.13" x="86.45" y="948.70" speed="10.01"/>
        <vehicle id="veh8" lane="G5_0" pos="71.58" x="63.76" y="934.92" speed="13.34"/>
        <vehicle id="veh9" lane="G5_0" pos="40.93" x="37.56" y="919.01" speed="13.52"/>
    </timestep>
    <timestep time="23.00" id="veh5" vType="">
        <vehicle id="veh1" lane="G5_0" pos="149.64" x="130.48" y="975.43" speed="0.00"/>
        <vehicle id="veh10" lane="G5_0" pos="27.49" x="26.07" y="912.03" speed="10.66"/>
        <vehicle id="veh11" lane="G5_0" pos="10.56" x="11.60" y="903.25" speed="5.20"/>
        <vehicle id="veh2" lane="G5_1" pos="149.63" x="128.76" y="978.25" speed="0.01"/>
        <vehicle id="veh3" lane="G5_0" pos="144.11" x="125.76" y="972.56" speed="0.03"/>
        <vehicle id="veh4" lane="G5_1" pos="143.66" x="123.66" y="975.15" speed="0.51"/>
        <vehicle id="veh5" lane="G5_0" pos="136.81" x="119.51" y="968.77" speed="1.73"/>
        <vehicle id="veh6" lane="G5_1" pos="126.00" x="108.56" y="965.98" speed="7.30"/>
        <vehicle id="veh7" lane="G5_0" pos="108.62" x="95.42" y="954.14" speed="11.00"/>
        <vehicle id="veh8" lane="G5_0" pos="84.62" x="74.91" y="941.69" speed="13.31"/>
        <vehicle id="veh9" lane="G5_0" pos="55.83" x="50.29" y="926.74" speed="15.74"/>
    </timestep>
    <timestep time="24.00" id="veh5" vType="">
        <vehicle id="veh1" lane="G5_0" pos="149.64" x="130.48" y="975.43" speed="0.00"/>
        <vehicle id="veh10" lane="G5_0" pos="39.58" x="36.40" y="918.31" speed="13.26"/>
        <vehicle id="veh11" lane="G5_0" pos="17.19" x="17.26" y="906.69" speed="7.80"/>
        <vehicle id="veh12" lane="G5_0" pos="6.27" x="7.93" y="901.02" speed="2.34"/>
        <vehicle id="veh2" lane="G5_1" pos="149.64" x="128.76" y="978.25" speed="0.00"/>
        <vehicle id="veh3" lane="G5_0" pos="144.13" x="125.77" y="972.57" speed="0.01"/>
        <vehicle id="veh4" lane="G5_1" pos="143.97" x="123.92" y="975.31" speed="0.18"/>
        <vehicle id="veh5" lane="G5_0" pos="137.94" x="120.48" y="969.36" speed="0.74"/>
        <vehicle id="veh6" lane="G5_1" pos="131.87" x="113.58" y="969.03" speed="4.77"/>
        <vehicle id="veh7" lane="G5_0" pos="118.05" x="103.48" y="959.04" speed="8.16"/>
        <vehicle id="veh8" lane="G5_0" pos="96.62" x="85.16" y="947.92" speed="10.94"/>
        <vehicle id="veh9" lane="G5_0" pos="70.56" x="62.89" y="934.39" speed="13.77"/>
    </timestep>
    <timestep time="25.00" id="veh5" vType="">
        <vehicle id="veh1" lane="G5_0" pos="149.64" x="130.48" y="975.43" speed="0.00"/>
        <vehicle id="veh10" lane="G5_0" pos="54.13" x="48.84" y="925.86" speed="14.95"/>
        <vehicle id="veh11" lane="G5_0" pos="26.42" x="25.15" y="911.48" speed="10.40"/>
        <vehicle id="veh12" lane="G5_0" pos="10.04" x="11.15" y="902.98" speed="4.94"/>
        <vehicle id="veh2" lane="G5_1" pos="149.64" x="128.76" y="978.25" speed="0.00"/>
        <vehicle id="veh3" lane="G5_0" pos="144.13" x="125.78" y="972.57" speed="0.00"/>
        <vehicle id="veh4" lane="G5_1" pos="144.08" x="124.01" y="975.36" speed="0.06"/>
        <vehicle id="veh5" lane="G5_0" pos="138.39" x="120.87" y="969.59" speed="0.27"/>
        <vehicle id="veh6" lane="G5_1" pos="135.46" x="116.64" y="970.89" speed="2.71"/>
        <vehicle id="veh7" lane="G5_0" pos="124.74" x="109.20" y="962.51" speed="5.54"/>
        <vehicle id="veh8" lane="G5_0" pos="106.32" x="93.45" y="952.95" speed="8.70"/>
        <vehicle id="veh9" lane="G5_0" pos="83.19" x="73.68" y="940.94" speed="11.70"/>
    </timestep>
    <timestep time="26.00" id="veh5" vType="">
        <vehicle id="veh1" lane="G5_0" pos="149.64" x="130.48" y="975.43" speed="0.00"/>
        <vehicle id="veh10" lane="G5_0" pos="67.99" x="60.69" y="933.05" speed="12.98"/>
        <vehicle id="veh11" lane="G5_0" pos="38.25" x="35.27" y="917.62" speed="13.00"/>
        <vehicle id="veh12" lane="G5_0" pos="16.41" x="16.60" y="906.29" speed="7.54"/>
        <vehicle id="veh13" lane="G5_0" pos="6.04" x="7.73" y="900.90" speed="2.08"/>
        <vehicle id="veh2" lane="G5_1" pos="149.64" x="128.76" y="978.25" speed="0.00"/>
        <vehicle id="veh3" lane="G5_0" pos="144.14" x="125.78" y="972.57" speed="0.00"/>
        <vehicle id="veh4" lane="G5_1" pos="144.12" x="124.04" y="975.38" speed="0.02"/>
        <vehicle id="veh5" lane="G5_0" pos="138.55" x="121.00" y="969.67" speed="0.10"/>
        <vehicle id="veh6" lane="G5_1" pos="137.33" x="118.24" y="971.86" speed="1.29"/>
        <vehicle id="veh7" lane="G5_0" pos="129.01" x="112.85" y="964.72" speed="3.30"/>
        <vehicle id="veh8" lane="G5_0" pos="113.86" x="99.90" y="956.86" speed="6.62"/>
        <vehicle id="veh9" lane="G5_0" pos="93.78" x="82.74" y="946.44" speed="9.71"/>
    </timestep>
    <timestep time="27.00" id="veh5" vType="">
        <vehicle id="veh1" lane="G5_0" pos="149.64" x="130.48" y="975.43" speed="0.00"/>
        <vehicle id="veh10" lane="G5_0" pos="80.87" x="71.70" y="939.74" speed="12.94"/>
        <vehicle id="veh11" lane="G5_0" pos="52.67" x="47.60" y="925.11" speed="15.54"/>
        <vehicle id="veh12" lane="G5_0" pos="25.38" x="24.27" y="910.94" speed="10.14"/>
        <vehicle id="veh13" lane="G5_0" pos="9.55" x="10.73" y="902.72" speed="4.68"/>
        <vehicle id="veh2" lane="G5_1" pos="149.64" x="128.76" y="978.25" speed="0.00"/>
        <vehicle id="veh3" lane="G5_0" pos="144.14" x="125.78" y="972.58" speed="0.00"/>
        <vehicle id="veh4" lane="G5_1" pos="144.13" x="124.06" y="975.39" speed="0.01"/>
        <vehicle id="veh5" lane="G5_0" pos="138.61" x="121.05" y="969.70" speed="0.03"/>
        <vehicle id="veh6" lane="G5_1" pos="138.15" x="118.94" y="972.29" speed="0.52"/>
        <vehicle id="veh7" lane="G5_0" pos="131.36" x="114.86" y="965.95" speed="1.67"/>
        <vehicle id="veh8" lane="G5_1" pos="121.09" x="104.36" y="963.43" speed="7.05"/>
        <vehicle id="veh9" lane="G5_0" pos="104.28" x="91.71" y="951.89" speed="10.66"/>
    </timestep>
    <timestep time="28.00" id="veh5" vType="">
        <vehicle id="veh1" lane="G5_0" pos="149.64" x="130.48" y="975.43" speed="0.00"/>
        <vehicle id="veh10" lane="G5_0" pos="92.52" x="81.65" y="945.78" speed="10.60"/>
        <vehicle id="veh11" lane="G5_0" pos="67.04" x="59.88" y="932.56" speed="13.42"/>
        <vehicle id="veh12" lane="G5_0" pos="36.95" x="34.16" y="916.95" speed="12.74"/>
        <vehicle id="veh13" lane="G5_0" pos="15.66" x="15.95" y="905.90" speed="7.28"/>
        <vehicle id="veh14" lane="G5_0" pos="5.83" x="7.55" y="900.79" speed="1.82"/>
        <vehicle id="veh2" lane="G5_1" pos="149.64" x="128.76" y="978.25" speed="0.00"/>
        <vehicle id="veh3" lane="G5_0" pos="144.14" x="125.78" y="972.58" speed="0.00"/>
        <vehicle id="veh4" lane="G5_1" pos="144.14" x="124.06" y="975.39" speed="0.00"/>
        <vehicle id="veh5" lane="G5_0" pos="138.63" x="121.07" y="969.71" speed="0.01"/>
        <vehicle id="veh6" lane="G5_1" pos="138.46" x="119.21" y="972.45" speed="0.19"/>
        <vehicle id="veh7" lane="G5_0" pos="132.46" x="115.80" y="966.51" speed="0.71"/>
        <vehicle id="veh8" lane="G5_1" pos="126.74" x="109.19" y="966.37" speed="4.57"/>
        <vehicle id="veh9" lane="G5_0" pos="113.38" x="99.49" y="956.61" speed="7.85"/>
    </timestep>
    <timestep time="29.00" id="veh5" vType="">
        <vehicle id="veh1" lane="G5_0" pos="149.64" x="130.48" y="975.43" speed="0.00"/>
        <vehicle id="veh10" lane="G5_0" pos="101.89" x="89.67" y="950.65" speed="8.40"/>
        <vehicle id="veh11" lane="G5_0" pos="79.33" x="70.38" y="938.94" speed="11.37"/>
        <vehicle id="veh12" lane="G5_0" pos="51.01" x="46.18" y="924.24" speed="14.57"/>
        <vehicle id="veh13" lane="G5_0" pos="24.37" x="23.40" y="910.42" speed="9.88"/>
        <vehicle id="veh14" lane="G5_0" pos="9.08" x="10.33" y="902.48" speed="4.42"/>
        <vehicle id="veh2" lane="G5_1" pos="149.64" x="128.76" y="978.25" speed="0.00"/>
        <vehicle id="veh3" lane="G5_0" pos="144.14" x="125.78" y="972.58" speed="0.00"/>
        <vehicle id="veh4" lane="G5_1" pos="144.14" x="124.06" y="975.40" speed="0.00"/>
        <vehicle id="veh5" lane="G5_0" pos="138.63" x="121.08" y="969.72" speed="0.00"/>
        <vehicle id="veh6" lane="G5_1" pos="138.58" x="119.31" y="972.51" speed="0.07"/>
        <vehicle id="veh7" lane="G5_0" pos="132.89" x="116.17" y="966.74" speed="0.27"/>
        <vehicle id="veh8" lane="G5_1" pos="130.16" x="112.11" y="968.14" speed="2.56"/>
        <vehicle id="veh9" lane="G5_0" pos="119.79" x="104.97" y="959.94" speed="5.27"/>
    </timestep>
    <timestep time="30.00" id="veh5" vType="">
        <vehicle id="veh1" lane="G5_0" pos="149.64" x="130.48" y="975.43" speed="0.00"/>
        <vehicle id="veh10" lane="G5_0" pos="109.16" x="95.88" y="954.42" speed="6.36"/>
        <vehicle id="veh11" lane="G5_0" pos="89.62" x="79.18" y="944.28" speed="9.42"/>
        <vehicle id="veh12" lane="G5_0" pos="64.51" x="57.71" y="931.25" speed="12.62"/>
        <vehicle id="veh13" lane="G5_0" pos="35.68" x="33.07" y="916.29" speed="12.48"/>
        <vehicle id="veh14" lane="G5_0" pos="14.93" x="15.33" y="905.52" speed="7.02"/>
        <vehicle id="veh15" lane="G5_0" pos="5.65" x="7.40" y="900.70" speed="1.56"/>
        <vehicle id="veh2" lane="G5_1" pos="149.64" x="128.76" y="978.25" speed="0.00"/>
        <vehicle id="veh3" lane="G5_0" pos="144.14" x="125.78" y="972.58" speed="0.00"/>
        <vehicle id="veh4" lane="G5_1" pos="144.14" x="124.06" y="975.40" speed="0.00"/>
        <vehicle id="veh5" lane="G5_0" pos="138.64" x="121.08" y="969.72" speed="0.00"/>
        <vehicle id="veh6" lane="G5_1" pos="138.62" x="119.34" y="972.53" speed="0.02"/>
        <vehicle id="veh7" lane="G5_0" pos="133.05" x="116.30" y="966.82" speed="0.09"/>
        <vehicle id="veh8" lane="G5_1" pos="131.92" x="113.62" y="969.05" speed="1.21"/>
        <vehicle id="veh9" lane="G5_0" pos="123.83" x="108.42" y="962.04" speed="3.10"/>
    </timestep>
    <timestep time="31.00" id="veh5" vType="">
        <vehicle id="veh1" lane="G5_0" pos="149.64" x="130.48" y="975.43" speed="0.00"/>
        <vehicle id="veh10" lane="G5_1" pos="116.14" x="100.13" y="960.87" speed="6.83"/>
        <vehicle id="veh11" lane="G5_0" pos="99.82" x="87.90" y="949.57" speed="10.37"/>
        <vehicle id="veh12" lane="G5_0" pos="77.04" x="68.42" y="937.75" speed="12.60"/>
        <vehicle id="veh13" lane="G5_0" pos="49.59" x="44.96" y="923.50" speed="15.08"/>
        <vehicle id="veh14" lane="G5_0" pos="23.38" x="22.55" y="909.90" speed="9.62"/>
        <vehicle id="veh15" lane="G5_0" pos="8.64" x="9.95" y="902.25" speed="4.16"/>
        <vehicle id="veh2" lane="G5_1" pos="149.64" x="128.76" y="978.25" speed="0.00"/>
        <vehicle id="veh3" lane="G5_0" pos="144.14" x="125.78" y="972.58" speed="0.00"/>
        <vehicle id="veh4" lane="G5_1" pos="144.14" x="124.06" y="975.40" speed="0.00"/>
        <vehicle id="veh5" lane="G5_0" pos="138.64" x="121.08" y="969.72" speed="0.00"/>
        <vehicle id="veh6" lane="G5_1" pos="138.63" x="119.35" y="972.54" speed="0.01"/>
        <vehicle id="veh7" lane="G5_0" pos="133.11" x="116.35" y="966.85" speed="0.03"/>
        <vehicle id="veh8" lane="G5_1" pos="132.68" x="114.27" y="969.45" speed="0.49"/>
        <vehicle id="veh9" lane="G5_0" pos="126.02" x="110.29" y="963.17" speed="1.54"/>
    </timestep>
    <timestep time="32.00" id="veh5" vType="">
        <vehicle id="veh1" lane="G5_0" pos="149.64" x="130.48" y="975.43" speed="0.00"/>
        <vehicle id="veh10" lane="G5_1" pos="121.59" x="104.79" y="963.70" speed="4.38"/>
        <vehicle id="veh11" lane="G5_0" pos="108.64" x="95.44" y="954.15" speed="7.58"/>
        <vehicle id="veh12" lane="G5_0" pos="88.35" x="78.09" y="943.62" speed="10.28"/>
        <vehicle id="veh13" lane="G5_0" pos="63.57" x="56.91" y="930.76" speed="13.05"/>
        <vehicle id="veh14" lane="G5_0" pos="34.43" x="32.00" y="915.64" speed="12.22"/>
        <vehicle id="veh15" lane="G5_0" pos="14.23" x="14.73" y="905.15" speed="6.76"/>
        <vehicle id="veh16" lane="G5_0" pos="5.49" x="7.26" y="900.62" speed="1.30"/>
        <vehicle id="veh2" lane="G5_1" pos="149.64" x="128.76" y="978.25" speed="0.00"/>
        <vehicle id="veh3" lane="G5_0" pos="144.14" x="125.78" y="972.58" speed="0.00"/>
        <vehicle id="veh4" lane="G5_1" pos="144.14" x="124.06" y="975.40" speed="0.00"/>
        <vehicle id="veh5" lane="G5_0" pos="138.64" x="121.08" y="969.72" speed="0.00"/>
        <vehicle id="veh6" lane="G5_1" pos="138.63" x="119.36" y="972.54" speed="0.00"/>
        <vehicle id="veh7" lane="G5_0" pos="133.13" x="116.37" y="966.86" speed="0.01"/>
        <vehicle id="veh8" lane="G5_1" pos="132.98" x="114.52" y="969.60" speed="0.17"/>
        <vehicle id="veh9" lane="G5_0" pos="127.02" x="111.15" y="963.69" speed="0.65"/>
    </timestep>
    <timestep time="33.00" id="veh5" vType="">
        <vehicle id="veh1" lane="G5_0" pos="149.64" x="130.48" y="975.43" speed="0.00"/>
        <vehicle id="veh10" lane="G5_1" pos="124.85" x="107.58" y="965.39" speed="2.43"/>
        <vehicle id="veh11" lane="G5_0" pos="114.79" x="100.70" y="957.35" speed="5.03"/>
        <vehicle id="veh12" lane="G5_0" pos="97.42" x="85.85" y="948.33" speed="8.11"/>
        <vehicle id="veh13" lane="G5_0" pos="75.50" x="67.11" y="936.95" speed="11.03"/>
        <vehicle id="veh14" lane="G5_0" pos="47.99" x="43.60" y="922.68" speed="14.17"/>
        <vehicle id="veh15" lane="G5_0" pos="22.42" x="21.73" y="909.40" speed="9.36"/>
        <vehicle id="veh16" lane="G5_0" pos="8.22" x="9.60" y="902.04" speed="3.90"/>
        <vehicle id="veh2" lane="G5_1" pos="149.64" x="128.76" y="978.25" speed="0.00"/>
        <vehicle id="veh3" lane="G5_0" pos="144.14" x="125.78" y="972.58" speed="0.00"/>
        <vehicle id="veh4" lane="G5_1" pos="144.14" x="124.06" y="975.40" speed="0.00"/>
        <vehicle id="veh5" lane="G5_0" pos="138.64" x="121.08" y="969.72" speed="0.00"/>
        <vehicle id="veh6" lane="G5_1" pos="138.64" x="119.36" y="972.54" speed="0.00"/>
        <vehicle id="veh7" lane="G5_0" pos="133.13" x="116.37" y="966.86" speed="0.00"/>
        <vehicle id="veh8" lane="G5_1" pos="133.08" x="114.61" y="969.66" speed="0.06"/>
        <vehicle id="veh9" lane="G5_0" pos="127.42" x="111.49" y="963.90" speed="0.24"/>
    </timestep>
    <timestep time="34.00" id="veh5" vType="">
        <vehicle id="veh1" lane="G5_0" pos="149.64" x="130.48" y="975.43" speed="0.00"/>
        <vehicle id="veh10" lane="G5_1" pos="126.51" x="108.99" y="966.25" speed="1.13"/>
        <vehicle id="veh11" lane="G5_0" pos="118.62" x="103.97" y="959.33" speed="2.92"/>
        <vehicle id="veh12" lane="G5_0" pos="104.41" x="91.82" y="951.96" speed="6.10"/>
        <vehicle id="veh13" lane="G5_0" pos="85.46" x="75.62" y="942.12" speed="9.10"/>
        <vehicle id="veh14" lane="G5_0" pos="61.10" x="54.80" y="929.48" speed="12.25"/>
        <vehicle id="veh15" lane="G5_0" pos="33.21" x="30.96" y="915.00" speed="11.96"/>
        <vehicle id="veh16" lane="G5_0" pos="13.55" x="14.15" y="904.80" speed="6.50"/>
        <vehicle id="veh17" lane="G5_0" pos="5.36" x="7.15" y="900.55" speed="1.04"/>
        <vehicle id="veh2" lane="G5_1" pos="149.64" x="128.76" y="978.25" speed="0.00"/>
        <vehicle id="veh3" lane="G5_0" pos="144.14" x="125.78" y="972.58" speed="0.00"/>
        <vehicle id="veh4" lane="G5_1" pos="144.14" x="124.06" y="975.40" speed="0.00"/>
        <vehicle id="veh5" lane="G5_0" pos="138.64" x="121.08" y="969.72" speed="0.00"/>